VARIABLES="J", "I", "x", "y", "z", "rho", "ux", "uy", "uz", "bxSM", "bySM", "bzSM", "p", "rCurve", "xZ0", "yZ0", "zZ0", "rhoZ0", "uxZ0", "uyZ0", "uzZ0", "bxSMZ0", "bySMZ0", "bzSMZ0", "pZ0", "rCurveZ0"
ZONE T="Values at minimum B", I=    20, J=    25, K=     1, F=POINT
AUXDATA ITER="     362"
AUXDATA TIMESIM="  6.0000000000E+01"
     1     1  9.3724815229E+06  1.6614160137E+07 -3.9577506431E+06  1.6140395543E-20  5.4541512674E+03 -5.0235068595E+02 -2.9740135923E+03 -1.6279082789E-07 -2.8225345204E-07  1.0528851191E-06  1.5947275756E-10  1.3352552477E+07  7.9361536349E+06  1.6570530076E+07 -5.3427478401E+06  1.6211394149E-20  4.9765335492E+03 -4.3958334445E+02 -3.8397625997E+03  4.4809139470E-09 -2.1968011124E-09  1.1459664297E-06  1.5181183933E-10  1.2429199033E+07
     1     2  9.9308256488E+06  1.8708376947E+07 -4.7235874627E+06  1.6003583637E-20  6.8907947687E+03 -5.9689858478E+02 -3.8844741230E+03 -8.3029321561E-08 -1.5569322095E-07  7.6984903061E-07  1.8250086299E-10  1.2925757821E+07  8.9107689936E+06  1.8605507454E+07 -5.9988747678E+06  1.6058160430E-20  6.6494095531E+03 -5.4412266217E+02 -4.6604807362E+03  5.0741045697E-09 -2.5601931403E-09  8.0687478837E-07  1.7868871646E-10  1.2138502103E+07
     1     3  1.0747385075E+07  2.0768137728E+07 -5.4317293002E+06  1.5732213703E-20  7.2680949619E+03 -2.4947417678E+02 -5.4479785528E+03 -4.8297970498E-08 -9.7029729198E-08  5.7003293428E-07  1.8872358323E-10  1.3076069548E+07  9.8853843523E+06  2.0640484832E+07 -6.6550016956E+06  1.5772148524E-20  7.1522343425E+03 -3.8028763417E+02 -6.3853538782E+03  5.0364325024E-09 -2.7996524005E-09  5.8909365705E-07  1.8705017965E-10  1.2547781605E+07
     1     4  1.1722750705E+07  2.2806390323E+07 -6.0491582182E+06  1.5423055934E-20  7.1301320851E+03  4.3008076353E+02 -7.1702844266E+03 -3.2391022993E-08 -6.9457568212E-08  4.3063585350E-07  1.9138164936E-10  1.3392598970E+07  1.0859999711E+07  2.2675462209E+07 -7.3111286233E+06  1.5425260623E-20  6.5089580726E+03  7.1305309376E+01 -8.5883828720E+03  4.7920050391E-09 -3.0390305283E-09  4.4285887842E-07  1.9049684401E-10  1.3380683978E+07
     1     5  1.2549743535E+07  2.4792675975E+07 -6.9056970732E+06  1.5102376034E-20  6.2465164609E+03  1.2792820946E+03 -9.3740747234E+03 -1.7525961714E-08 -4.3153265331E-08  3.3573230697E-07  1.9442701833E-10  1.3839859214E+07  1.1834615070E+07  2.4710439587E+07 -7.9672555510E+06  1.5080923921E-20  5.1686968909E+03  8.4732276372E+02 -1.0818371676E+04  4.5262074454E-09 -3.3263416403E-09  3.4097333677E-07  1.9444937790E-10  1.4098871009E+07
     1     6  1.3195514717E+07  2.6776701681E+07 -8.0518190399E+06  1.4748023918E-20  3.6495743484E+03  2.2243302921E+03 -1.2338944816E+04 -4.4360290841E-09 -1.9527309948E-08  2.6674401711E-07  1.9892214484E-10  1.4646352566E+07  1.2809230428E+07  2.6745416965E+07 -8.6233824788E+06  1.4739277579E-20  3.0739501303E+03  1.9605037090E+03 -1.3110070844E+04  4.2389035835E-09 -3.6623605692E-09  2.6785748160E-07  1.9898110863E-10  1.4718312896E+07
     1     7  1.3809657710E+07  2.8781596378E+07 -9.2416903977E+06  1.4401027033E-20  2.0575007535E+02  3.4447679623E+03 -1.5449071602E+04  3.5059260732E-09 -4.8374028639E-09  2.1405477824E-07  2.0415295738E-10  1.5251926390E+07  1.3783845787E+07  2.8780394343E+07 -9.2795094065E+06  1.4400460759E-20  1.6265213773E+02  3.4243860964E+03 -1.5501384458E+04  3.9299573157E-09 -4.0478621474E-09  2.1406472023E-07  2.0416536355E-10  1.5254979840E+07
     1     8  1.4392840742E+07  3.0812197753E+07 -1.0461307516E+07  1.4056991546E-20 -4.3086261102E+03  4.9240621777E+03 -1.8779545768E+04  7.9928065976E-09  3.9050017514E-09  1.7327638739E-07  2.1036434617E-10  1.5743937241E+07  1.4758461146E+07  3.0815371720E+07 -9.9356363342E+06  1.4064612620E-20 -3.6321824288E+03  5.2533432525E+03 -1.8033670631E+04  3.5992325041E-09 -4.4836212075E-09  1.7363950223E-07  2.1007547000E-10  1.5724842042E+07
     1     9  1.5026508822E+07  3.2866514665E+07 -1.1585078824E+07  1.3679099285E-20 -1.3484709406E+04  7.6539330218E+03 -2.1581905822E+04  9.5277619609E-09  7.1927714350E-09  1.4156018560E-07  2.1830062588E-10  1.6277459407E+07  1.5733076504E+07  3.2850349098E+07 -1.0591763262E+07  1.3692952454E-20 -1.1983226802E+04  8.4156499764E+03 -2.0104424903E+04  3.3312796073E-09 -5.0387282201E-09  1.4262397208E-07  2.1761298421E-10  1.6306314854E+07
     1    10  1.5702654212E+07  3.4925132150E+07 -1.2629781043E+07  1.3273548859E-20 -2.8179262083E+04  1.1798550593E+04 -2.3799369822E+04  9.7170985682E-09  7.7481197925E-09  1.1680923563E-07  2.2682667740E-10  1.6888050780E+07  1.6707691863E+07  3.4885326476E+07 -1.1247890190E+07  1.3290634739E-20 -2.5805662397E+04  1.3150803698E+04 -2.1600898744E+04  3.1556389900E-09 -5.6994719741E-09  1.1836826176E-07  2.2588700619E-10  1.7045167895E+07
     1    11  1.6310598827E+07  3.6994598246E+07 -1.3739758874E+07  1.2884783693E-20 -4.4865711600E+04  1.6228476230E+04 -2.6325356460E+04  9.6450265762E-09  7.9169543875E-09  9.7072433511E-08  2.3468112861E-10  1.7406117122E+07  1.7682307222E+07  3.6920303854E+07 -1.1904017117E+07  1.2904188749E-20 -4.1346274287E+04  1.8468263913E+04 -2.3228310410E+04  2.9879845003E-09 -6.3831483987E-09  9.9152253253E-08  2.3350724489E-10  1.7769828278E+07
     1    12  1.6854627369E+07  3.9080439044E+07 -1.4901549017E+07  1.2512132018E-20 -6.3716764593E+04  2.0905618632E+04 -2.9153326781E+04  9.2783337922E-09  7.6148651512E-09  8.1110937926E-08  2.4173745517E-10  1.7818561764E+07  1.8656922580E+07  3.8955281231E+07 -1.2560144045E+07  1.2532998700E-20 -5.8750755888E+04  2.4410195058E+04 -2.4988788044E+04  2.8324793806E-09 -7.0918428419E-09  8.3715123081E-08  2.4035826085E-10  1.8484708491E+07
     1    13  1.7266629419E+07  4.1171898378E+07 -1.6186180565E+07  1.2157048644E-20 -8.4883536038E+04  2.5634918880E+04 -3.2369013940E+04  8.9186378640E-09  7.4665257392E-09  6.7971953816E-08  2.4786659337E-10  1.8103388309E+07  1.9631537939E+07  4.0990258609E+07 -1.3216270973E+07  1.2175155481E-20 -7.9086843683E+04  3.0718804832E+04 -2.6185841765E+04  2.7164870349E-09 -7.7228315236E-09  7.0996699719E-08  2.4582952070E-10  1.9465019329E+07
     1    14  1.7520381554E+07  4.3230125749E+07 -1.7620338517E+07  1.1825472583E-20 -1.0815945997E+05  3.0067094143E+04 -3.5991302795E+04  8.4774303689E-09  7.3689972712E-09  5.7088409936E-08  2.5300502857E-10  1.8205596269E+07  2.0606153298E+07  4.3025235987E+07 -1.3872397901E+07  1.1831270006E-20 -1.0237646201E+05  3.6941434266E+04 -2.6790166116E+04  2.6254024141E-09 -8.2303590872E-09  6.0287503232E-08  2.4903058972E-10  2.0728018452E+07
     1    15  1.7765864124E+07  4.5283953917E+07 -1.9048559476E+07  1.1510276254E-20 -1.3501990061E+05  3.3406023251E+04 -3.8599399400E+04  7.8582290242E-09  6.7797932812E-09  4.7882594736E-08  2.5043858839E-10  1.8296665735E+07  2.1580768656E+07  4.5060213365E+07 -1.4528524828E+07  1.1505905756E-20 -1.2843211923E+05  4.2320180260E+04 -2.6972667757E+04  2.5441058185E-09 -8.6036685401E-09  5.1126046449E-08  2.4657174171E-10  2.2137719195E+07
     1    16  1.8190673365E+07  4.7344775566E+07 -2.0196324597E+07  1.1195254621E-20 -1.6630939242E+05  3.4191849573E+04 -3.7440327842E+04  7.2471921290E-09  5.3719519756E-09  4.0251891186E-08  2.3008697641E-10  1.8665797824E+07  2.2555384015E+07  4.7095190742E+07 -1.5184651756E+07  1.1201661048E-20 -1.5829374910E+05  4.3952748705E+04 -2.5367880126E+04  2.5050772873E-09 -8.5646744820E-09  4.2911757270E-08  2.2823325753E-10  2.3960293174E+07
     1    17  1.8394905731E+07  4.9479449569E+07 -2.1516935166E+07  1.0862224232E-20 -1.9998447608E+05  3.2863648648E+04 -3.4357053290E+04  6.9554801058E-09  4.5552999235E-09  3.3407724580E-08  2.0468321530E-10  1.9286343280E+07  2.3529999374E+07  4.9130168120E+07 -1.5840778684E+07  1.0900851296E-20 -1.8887698472E+05  4.4867592759E+04 -2.3633817937E+04  2.4786680257E-09 -8.4875890656E-09  3.5810659016E-08  2.0786333740E-10  2.5605065197E+07
     1    18  1.8813498945E+07  5.1803957824E+07 -2.2541202216E+07  1.0513049717E-20 -2.3485792393E+05  3.2625464321E+04 -3.1149376997E+04  6.4898454112E-09  2.9397581416E-09  2.7561943913E-08  1.7767629886E-10  1.9837832231E+07  2.4504614732E+07  5.1165145498E+07 -1.6496905612E+07  1.0603602207E-20 -2.2013151299E+05  4.4987443039E+04 -2.1717256695E+04  2.4658268492E-09 -8.3714546045E-09  2.9612505036E-08  1.8558819262E-10  2.6989449129E+07
     1    19  1.8907069095E+07  5.4297814264E+07 -2.3720606762E+07  1.0144928591E-20 -2.7172659461E+05  3.1405781404E+04 -2.7225255454E+04  6.3227675673E-09  1.8332072347E-09  2.2304493112E-08  1.4785757862E-10  2.0278899329E+07  2.5479230091E+07  5.3200122876E+07 -1.7153032539E+07  1.0310039486E-20 -2.5199828608E+05  4.4227689769E+04 -1.9559265560E+04  2.4675025732E-09 -8.2153134122E-09  2.4154635647E-08  1.6153403451E-10  2.8030858832E+07
     1    20  1.8441664419E+07  5.7280130383E+07 -2.5038122509E+07  9.7134153417E-21 -3.1403420196E+05  2.8985470048E+04 -2.1813233424E+04  6.4655761628E-09  1.0542095139E-09  1.7313331616E-08  1.1282363888E-10  2.0674686302E+07  2.6453845450E+07  5.5235100253E+07 -1.7809159467E+07  1.0020288840E-20 -2.8440835932E+05  4.2495705487E+04 -1.7094601014E+04  2.4846440132E-09 -8.0182078023E-09  1.9310164579E-08  1.3582707439E-10  2.8646708171E+07
     2     1  5.6014439472E+06  1.7972647070E+07 -3.4690271384E+06  1.6243073730E-20  4.1505347197E+03 -3.5471382735E+02 -4.2649169097E+03 -1.0510803995E-08 -4.5272655420E-08  1.1430910278E-06  1.6305353922E-10  1.2150716626E+07  5.4286488073E+06  1.7980078606E+07 -3.6546547640E+06  1.6241303640E-20  4.1703492199E+03 -3.5933442085E+02 -4.2821545610E+03  5.0678458619E-09 -2.5588253445E-09  1.1451098636E-06  1.6295454131E-10  1.2138174007E+07
     2     2  6.1901726648E+06  2.0186181479E+07 -3.9834954130E+06  1.6066949970E-20  4.7161412511E+03 -4.1903839164E+02 -5.8518632907E+03 -4.8747437598E-10 -1.9372873810E-08  8.0598025859E-07  1.7993346795E-10  1.2028184841E+07  6.0953249767E+06  2.0188158435E+07 -4.1034720158E+06  1.6067749890E-20  4.7206790739E+03 -4.2547202406E+02 -5.8887063179E+03  5.4412343856E-09 -2.9526684650E-09  8.0635892344E-07  1.7978558539E-10  1.2000035699E+07
     2     3  6.9658991712E+06  2.2395877822E+07 -4.2924143820E+06  1.5773117378E-20  4.8972539652E+03 -3.6850728345E+02 -7.7877672262E+03 -3.0663793943E-09 -2.6575312707E-08  5.8776791468E-07  1.8179989150E-10  1.2512184034E+07  6.7620011460E+06  2.2396238264E+07 -4.5522892675E+06  1.5780904319E-20  4.9107830206E+03 -4.1249924755E+02 -7.9427070399E+03  5.3044781601E-09 -3.1871177012E-09  5.8876190541E-07  1.8141837056E-10  1.2402721848E+07
     2     4  7.7604283875E+06  2.4613781535E+07 -4.5682177512E+06  1.5456742501E-20  4.9384639940E+03 -1.1682216944E+02 -9.5483292121E+03 -4.1735522611E-09 -2.9849340003E-08  4.4071631301E-07  1.8406320591E-10  1.3116160923E+07  7.4286773153E+06  2.4604318093E+07 -5.0011065192E+06  1.5476055303E-20  5.0203730622E+03 -2.5662122017E+02 -9.9076810559E+03  5.1762486440E-09 -3.4132041691E-09  4.4245051200E-07  1.8338449549E-10  1.2891986607E+07
     2     5  8.5060163245E+06  2.6835168482E+07 -4.8997414932E+06  1.5147679126E-20  4.7582735433E+03  3.0748351098E+02 -1.1443738920E+04 -3.1495750934E-09 -2.7202902876E-08  3.3862287925E-07  1.8624490337E-10  1.3601447380E+07  8.0953534846E+06  2.6812397921E+07 -5.4499237709E+06  1.5170797090E-20  4.9184054728E+03  5.8726808873E+01 -1.1961416106E+04  5.0347816815E-09 -3.6618602179E-09  3.4048697416E-07  1.8545213175E-10  1.3341587038E+07
     2     6  9.1611025035E+06  2.9047925155E+07 -5.3498945787E+06  1.4844908198E-20  4.4194692889E+03  8.6924982463E+02 -1.3541778119E+04 -8.7513469567E-10 -2.0885127195E-08  2.6602304986E-07  1.8830619521E-10  1.3985584819E+07  8.7620296540E+06  2.9020477750E+07 -5.8987410227E+06  1.4864903728E-20  4.5808591704E+03  5.5487946606E+02 -1.4113223512E+04  4.8813025809E-09 -3.9344083507E-09  2.6729259153E-07  1.8762338234E-10  1.3764657433E+07
     2     7  9.6095724071E+06  3.1238911220E+07 -6.0928809360E+06  1.4552254492E-20  3.9765104210E+03  1.4296161036E+03 -1.6092184163E+04  2.7963543532E-09 -1.0069074162E-08  2.1319478186E-07  1.9011556822E-10  1.4242210962E+07  9.4287058233E+06  3.1228557579E+07 -6.3475582744E+06  1.4558149265E-20  3.9816202049E+03  1.2550358162E+03 -1.6373352879E+04  4.7170366503E-09 -4.2321710708E-09  2.1342162148E-07  1.8990035025E-10  1.4174332083E+07
     2     8  1.0018048394E+07  3.3432808367E+07 -6.9058144798E+06  1.4133584180E-20 -3.5071673243E+03  3.6430666117E+03 -1.7689931372E+04  5.2099764456E-09 -2.8405731601E-09  1.7292276879E-07  1.9657112451E-10  1.4964836297E+07  1.0095381993E+07  3.3436637408E+07 -6.7963755261E+06  1.4132541187E-20 -3.4557914398E+03  3.7404433403E+03 -1.7562597858E+04  4.6076102026E-09 -4.7469313887E-09  1.7290769508E-07  1.9660410639E-10  1.4981889898E+07
     2     9  1.0429773741E+07  3.5629271386E+07 -7.7094792888E+06  1.3677246242E-20 -1.4884317023E+04  6.7275215616E+03 -1.8897334036E+04  6.4210274562E-09  9.3027916672E-10  1.4175548058E-07  2.0487334664E-10  1.5800105874E+07  1.0762058162E+07  3.5644717237E+07 -7.2451927778E+06  1.3676368530E-20 -1.4425675538E+04  7.2600207429E+03 -1.8327504014E+04  4.5311540967E-09 -5.3514211940E-09  1.4184446320E-07  2.0481938318E-10  1.5861328419E+07
     2    10  1.0767509380E+07  3.7829528683E+07 -8.5997010885E+06  1.3233095133E-20 -2.7871839610E+04  9.8875229892E+03 -2.0320903140E+04  7.1745330135E-09  3.6698592406E-09  1.1721875672E-07  2.1315427025E-10  1.6576698984E+07  1.1428734331E+07  3.7852797066E+07 -7.6940100296E+06  1.3233615985E-20 -2.6640488992E+04  1.1204105676E+04 -1.9139370295E+04  4.4505971749E-09 -5.9636574021E-09  1.1762944998E-07  2.1284686717E-10  1.6729500515E+07
     2    11  1.1029990975E+07  4.0034856753E+07 -9.5663034759E+06  1.2806516957E-20 -4.2289907997E+04  1.3107345839E+04 -2.1971274238E+04  7.5562776382E-09  5.5775572467E-09  9.7593059288E-08  2.2116781121E-10  1.7219584700E+07  1.2095410501E+07  4.0060876894E+07 -8.1428272813E+06  1.2803970911E-20 -4.0213279162E+04  1.5608344231E+04 -1.9998504591E+04  4.3680531706E-09 -6.5846987719E-09  9.8471724501E-08  2.2062794822E-10  1.7588646464E+07
     2    12  1.1141459953E+07  4.2251661385E+07 -1.0694056344E+07  1.2395266489E-20 -5.8500049309E+04  1.6070963234E+04 -2.3964195876E+04  7.7233261532E-09  7.3086767180E-09  8.1532092734E-08  2.2901722484E-10  1.7702238944E+07  1.2762086670E+07  4.2268956723E+07 -8.5916445330E+06  1.2387120665E-20 -5.5265702503E+04  2.0510905186E+04 -2.0905042425E+04  4.2856358173E-09 -7.2156040622E-09  8.3111654567E-08  2.2810401618E-10  1.8441006545E+07
     2    13  1.1067543275E+07  4.4501803114E+07 -1.2011235079E+07  1.1997090467E-20 -7.6741539897E+04  1.8557230398E+04 -2.6322885756E+04  7.6656406855E-09  8.9261827912E-09  6.8023191487E-08  2.3676147641E-10  1.7991124194E+07  1.3428762839E+07  4.4477036552E+07 -9.0404617847E+06  1.1982752606E-20 -7.1928624395E+04  2.5952645089E+04 -2.1858926914E+04  4.2054588487E-09 -7.8574320322E-09  7.0645634829E-08  2.3521646090E-10  1.9288821035E+07
     2    14  1.1275090321E+07  4.6748273531E+07 -1.2944064061E+07  1.1634383033E-20 -1.0425121249E+05  2.1512651617E+04 -2.6041189102E+04  7.1889525103E-09  7.8197972875E-09  5.7099649444E-08  2.2768547365E-10  1.8790197732E+07  1.4095439009E+07  4.6685116381E+07 -9.4892790365E+06  1.1629369102E-20 -9.8185872835E+04  3.0434586272E+04 -2.0843950552E+04  4.1804740090E-09 -8.2020297875E-09  5.9895354317E-08  2.2723271572E-10  2.0871256206E+07
     2    15  1.1443403612E+07  4.9028122119E+07 -1.3878902299E+07  1.1275224932E-20 -1.3429339262E+05  2.4283123794E+04 -2.5516958584E+04  6.7448836435E-09  6.5455032535E-09  4.7928827020E-08  2.1590299772E-10  1.9437337051E+07  1.4762115178E+07  4.8893196210E+07 -9.9380962882E+06  1.1289047081E-20 -1.2663722593E+05  3.4694894110E+04 -1.9581002574E+04  4.1626831501E-09 -8.4911592614E-09  5.0814728646E-08  2.1684804878E-10  2.2512363337E+07
     2    16  1.1493035849E+07  5.1354000865E+07 -1.4886523637E+07  1.0916260151E-20 -1.6666290535E+05  2.6659801580E+04 -2.4931815912E+04  6.3946953091E-09  5.4558535229E-09  4.0080742175E-08  2.0246236181E-10  1.9840068810E+07  1.5428791347E+07  5.1101276038E+07 -1.0386913540E+07  1.0958183361E-20 -1.5667267004E+05  3.8806912503E+04 -1.8195553703E+04  4.1488900648E-09 -8.7486074857E-09  4.3077990552E-08  2.0520504381E-10  2.4143762883E+07
     2    17  1.1340017084E+07  5.3774334952E+07 -1.6017536252E+07  1.0549207172E-20 -2.0218497169E+05  2.8481685130E+04 -2.4301159768E+04  6.1342993846E-09  4.5197311440E-09  3.3222810809E-08  1.8715242522E-10  1.9881763939E+07  1.6095467517E+07  5.3309355867E+07 -1.0835730792E+07  1.0636471195E-20 -1.8834511184E+05  4.2740849854E+04 -1.6646022667E+04  4.1402246413E-09 -8.9742149370E-09  3.6405148603E-08  1.9225874636E-10  2.5757982581E+07
     2    18  1.0740010613E+07  5.6397854807E+07 -1.7436990462E+07  1.0157264567E-20 -2.4279116694E+05  2.9263151248E+04 -2.3740573506E+04  5.9973930990E-09  3.9481806822E-09  2.6955161448E-08  1.6965268645E-10  1.9316694140E+07  1.6762143686E+07  5.5517435696E+07 -1.1284548043E+07  1.0323603836E-20 -2.2170911005E+05  4.6464571744E+04 -1.4886267156E+04  4.1378167677E-09 -9.1678220915E-09  3.0580289297E-08  1.7796420201E-10  2.7347550172E+07
     2    19  1.0589445258E+07  5.9076810460E+07 -1.8263576474E+07  9.8570950771E-21 -2.7384391041E+05  2.7699832899E+04 -2.1759467091E+04  5.7786095910E-09  2.6769775669E-09  2.2137991079E-08  1.4655397294E-10  1.9261964593E+07  1.7428819855E+07  5.7725515525E+07 -1.1733365295E+07  1.0035073434E-20 -2.5474498461E+05  4.8907485833E+04 -1.2962867514E+04  4.1190552681E-09 -9.2366620459E-09  2.5471231930E-08  1.6138289497E-10  2.8774080295E+07
     2    20  1.1045916466E+07  6.1635786667E+07 -1.8483823935E+07  9.6238874241E-21 -2.9688838835E+05  2.5473477747E+04 -1.8488137142E+04  5.6325483241E-09  1.1535977666E-09  1.8523832343E-08  1.2135290015E-10  1.9956117707E+07  1.8095496024E+07  5.9933595354E+07 -1.2182182547E+07  9.8416587116E-21 -2.7643437395E+05  4.4949913262E+04 -1.1426586731E+04  3.9749082905E-09 -8.7419418722E-09  2.1162825097E-08  1.3908282395E-10  2.9363448797E+07
     3     1  2.7519371611E+06  1.8843340204E+07 -1.8613830508E+06  1.6196525847E-20  4.0444803094E+03 -2.5969825760E+02 -3.8815383434E+03  6.0761275937E-09 -1.3702680813E-09  1.1446061329E-06  1.7209070581E-10  1.2445513574E+07  2.7561972328E+06  1.8843311546E+07 -1.8555168523E+06  1.6196563015E-20  4.0440333712E+03 -2.5953698355E+02 -3.8812140953E+03  5.8498499983E-09 -2.6705708952E-09  1.1446061056E-06  1.7209583810E-10  1.2445770998E+07
     3     2  3.0767572027E+06  2.1157492780E+07 -2.1083200350E+06  1.5937749736E-20  4.1341226669E+03 -2.5282863659E+02 -5.6455985041E+03  6.5068210288E-09  5.1540405978E-10  8.0634527883E-07  1.7677179387E-10  1.2726254634E+07  3.0946775947E+06  2.1157402438E+07 -2.0833873430E+06  1.5937912327E-20  4.1313430119E+03 -2.5070178286E+02 -5.6435698082E+03  5.9101575267E-09 -2.9512777001E-09  8.0635391009E-07  1.7679447554E-10  1.2727813596E+07
     3     3  3.4023708501E+06  2.3471632054E+07 -2.3536812475E+06  1.5657035780E-20  4.1153136182E+03 -2.4124550904E+02 -7.6454794291E+03  6.4859594862E-09  7.0373032922E-10  5.8865764798E-07  1.7760565807E-10  1.3088201343E+07  3.4331579566E+06  2.3471493329E+07 -2.3112578336E+06  1.5657303317E-20  4.1088051192E+03 -2.3464527620E+02 -7.6408717648E+03  5.8242825596E-09 -3.2023214663E-09  5.8867316332E-07  1.7764209036E-10  1.3091722235E+07
     3     4  3.7199630077E+06  2.5785767450E+07 -2.6096828134E+06  1.5377656635E-20  4.0954787202E+03 -2.3882710624E+02 -9.7619737101E+03  6.4728712851E-09  1.0170109650E-09  4.4221413014E-07  1.7845752928E-10  1.3445327278E+07  3.7716383185E+06  2.5785584221E+07 -2.5391283242E+06  1.5378085113E-20  4.0815426149E+03 -2.2268078662E+02 -9.7522129247E+03  5.7318529132E-09 -3.4561263125E-09  4.4224223253E-07  1.7851446650E-10  1.3452610459E+07
     3     5  4.0230935368E+06  2.8099871149E+07 -2.8849037147E+06  1.5099550348E-20  4.0790966008E+03 -2.5123525796E+02 -1.2007634144E+04  6.4867407013E-09  1.6019629858E-09  3.4009918030E-07  1.7932376879E-10  1.3796101988E+07  4.1101186805E+06  2.8099675113E+07 -2.7669988149E+06  1.5100235452E-20  4.0503843820E+03 -2.1526348557E+02 -1.1987579128E+04  5.6329837312E-09 -3.7128710126E-09  3.4015281658E-07  1.7941262888E-10  1.3810612833E+07
     3     6  4.2932742524E+06  3.0413938796E+07 -3.2045157518E+06  1.4822576101E-20  4.0770998892E+03 -2.9336984756E+02 -1.4400147405E+04  6.5901269100E-09  2.9243098017E-09  2.6670797121E-07  1.8019147347E-10  1.4136091083E+07  4.4485990424E+06  3.0413766004E+07 -2.9948693055E+06  1.4823732070E-20  4.0162235862E+03 -2.1288017904E+02 -1.4357651126E+04  5.5277901575E-09 -3.9727343405E-09  2.6682741317E-07  1.8033760241E-10  1.4165863923E+07
     3     7  4.5044762064E+06  3.2727853035E+07 -3.6038554331E+06  1.4484538667E-20  1.3535793137E+03  2.7523138036E+02 -1.6423351672E+04  6.8211363112E-09  4.9909789538E-09  2.1257504434E-07  1.8308198337E-10  1.4517307916E+07  4.7870794043E+06  3.2727856896E+07 -3.2227397962E+06  1.4486199575E-20  1.2334920410E+03  4.6509864511E+02 -1.6329814275E+04  5.4616584504E-09 -4.3555437976E-09  2.1284875614E-07  1.8330573839E-10  1.4585726825E+07
     3     8  4.7229639296E+06  3.5040455857E+07 -3.9878688333E+06  1.4039629889E-20 -6.6504022061E+03  2.1128935323E+03 -1.7623756050E+04  6.8273508216E-09  5.0943843861E-09  1.7190620208E-07  1.8969852924E-10  1.4981722932E+07  5.1255597662E+06  3.5041947788E+07 -3.4506102868E+06  1.4040257611E-20 -6.8133089977E+03  2.4882581447E+03 -1.7453147864E+04  5.4727000492E-09 -4.9544853436E-09  1.7228279492E-07  1.8990200381E-10  1.5122572350E+07
     3     9  4.8945008418E+06  3.7351268751E+07 -4.4289674858E+06  1.3597604170E-20 -1.5311932670E+04  4.0453015873E+03 -1.8967400010E+04  6.7809313828E-09  5.2379106739E-09  1.4068517606E-07  1.9647977519E-10  1.5396348995E+07  5.4640401281E+06  3.7356038679E+07 -3.6784807774E+06  1.3595799249E-20 -1.5536021213E+04  4.7449613015E+03 -1.8673715610E+04  5.4832452581E-09 -5.5599396659E-09  1.4120113994E-07  1.9660111169E-10  1.5658475787E+07
     3    10  5.0050869879E+06  3.9660823120E+07 -4.9441614954E+06  1.3159135232E-20 -2.4681321032E+04  6.0497278774E+03 -2.0481954522E+04  6.7284523374E-09  5.6501272236E-09  1.1626776428E-07  2.0344055707E-10  1.5742268838E+07  5.8025204901E+06  3.9670129571E+07 -3.9063512681E+06  1.3152782112E-20 -2.5008877245E+04  7.2603011088E+03 -2.0002228652E+04  5.4938387769E-09 -6.1722747261E-09  1.1700176817E-07  2.0340642630E-10  1.6193466296E+07
     3    11  5.0026191360E+06  4.1968215299E+07 -5.5953992684E+06  1.2722475672E-20 -3.4934580507E+04  7.9873166072E+03 -2.2178420510E+04  6.6394350574E-09  6.5628059528E-09  9.6790312861E-08  2.1066369296E-10  1.6012041698E+07  6.1410008520E+06  4.1984220462E+07 -4.1342217587E+06  1.2711163821E-20 -3.5316086871E+04  1.0062730511E+04 -2.1450837439E+04  5.5050253055E-09 -6.7918584858E-09  9.7895201139E-08  2.1032131194E-10  1.6727573037E+07
     3    12  4.7483327329E+06  4.4270744138E+07 -6.5581575297E+06  1.2284102797E-20 -4.6581270881E+04  9.4025232495E+03 -2.3942033870E+04  6.4776842207E-09  8.7803940728E-09  8.0732074388E-08  2.1830626916E-10  1.6207854935E+07  6.4794812139E+06  4.4298311354E+07 -4.3620922493E+06  1.2266662130E-20 -4.6650935897E+04  1.3249611261E+04 -2.2876406276E+04  5.5189733872E-09 -7.4093108260E-09  8.2616852359E-08  2.1738774165E-10  1.7299891318E+07
     3    13  4.5613080224E+06  4.6574463126E+07 -7.3944560510E+06  1.1870878838E-20 -6.9975431620E+04  1.2477889054E+04 -2.3323424842E+04  6.2692836533E-09  9.0000765252E-09  6.7635724840E-08  2.1517349468E-10  1.6967675626E+07  6.8179615758E+06  4.6612402246E+07 -4.5899627400E+06  1.1861939607E-20 -6.8983232618E+04  1.8096595220E+04 -2.1747602902E+04  5.5888987765E-09 -7.8984121340E-09  6.9936410010E-08  2.1415679595E-10  1.8656531730E+07
     3    14  4.3244761012E+06  4.8883829559E+07 -8.2505279426E+06  1.1461009492E-20 -9.7460161032E+04  1.5801974323E+04 -2.2147689833E+04  6.0605294995E-09  8.6976886376E-09  5.6819032602E-08  2.0931552046E-10  1.7734429871E+07  7.1564419377E+06  4.8926493137E+07 -4.8178332306E+06  1.1469503944E-20 -9.4780114091E+04  2.3398915354E+04 -2.0156743228E+04  5.6645072304E-09 -8.3537775482E-09  5.9434015802E-08  2.0873349997E-10  2.0141568486E+07
     3    15  3.9851568748E+06  5.1231987581E+07 -9.1628871071E+06  1.1045802108E-20 -1.2746363916E+05  1.8959847710E+04 -2.0901574805E+04  5.8488026582E-09  8.1458709831E-09  4.7712273200E-08  2.0267991602E-10  1.8360991366E+07  7.4949222997E+06  5.1240584029E+07 -5.0457037213E+06  1.1081227255E-20 -1.2252799292E+05  2.8959500746E+04 -1.8488518011E+04  5.7361829171E-09 -8.7933949259E-09  5.0673545485E-08  2.0292841673E-10  2.1626717772E+07
     3    16  3.3999560592E+06  5.3636256080E+07 -1.0254309494E+07  1.0622689564E-20 -1.6032888989E+05  2.1601931331E+04 -1.9618459269E+04  5.6461800812E-09  7.8572460256E-09  3.9808074962E-08  1.9531532832E-10  1.8707052897E+07  7.8334026616E+06  5.3554674921E+07 -5.2735742119E+06  1.0697180851E-20 -1.5240263409E+05  3.4795869406E+04 -1.6732728371E+04  5.8039493724E-09 -9.2172138644E-09  4.3287410324E-08  1.9673542349E-10  2.3105365382E+07
     3    17  2.4630399578E+06  5.6217254100E+07 -1.1550708911E+07  1.0171119015E-20 -1.9785396026E+05  2.3568471677E+04 -1.8234177552E+04  5.4434237320E-09  7.6267579820E-09  3.2669968585E-08  1.8711669523E-10  1.8708890115E+07  8.1718830235E+06  5.5868765812E+07 -5.5014447025E+06  1.0317436044E-20 -1.8460008577E+05  4.0927325767E+04 -1.4877911417E+04  5.8678301318E-09 -9.6251839607E-09  3.6995458818E-08  1.9014839754E-10  2.4570897116E+07
     3    18  1.7688893594E+06  5.8830812521E+07 -1.2464520630E+07  9.8422130996E-21 -2.3030346986E+05  2.3182807850E+04 -1.6364512454E+04  5.3164546777E-09  6.5835304351E-09  2.7046047755E-08  1.6969127877E-10  1.8963914498E+07  8.5103633854E+06  5.8182856704E+07 -5.7293151932E+06  1.0007483969E-20 -2.1560216994E+05  4.4476268511E+04 -1.2984589815E+04  5.8304828344E-09 -9.7511876365E-09  3.1505359989E-08  1.7834017248E-10  2.5951535192E+07
     3    19  1.5940396566E+06  6.1396334273E+07 -1.2802094334E+07  9.6210750352E-21 -2.5706848066E+05  2.2042158331E+04 -1.4021750381E+04  5.3743223493E-09  4.8915576383E-09  2.2860542384E-08  1.4491742078E-10  1.9738846961E+07  8.8488437473E+06  6.0496947595E+07 -5.9571856838E+06  9.8262435049E-21 -2.4061291946E+05  4.2276729411E+04 -1.1167125750E+04  5.6078083617E-09 -9.3461259875E-09  2.6597813015E-08  1.5679943079E-10  2.7058868024E+07
     3    20  1.3367074423E+06  6.4097071522E+07 -1.3039874496E+07  9.3865425414E-21 -2.8612959036E+05  2.1019004040E+04 -1.1398844211E+04  5.5665171382E-09  3.3934857052E-09  1.9203566578E-08  1.1889503468E-10  2.0537889913E+07  9.1873241093E+06  6.2811038487E+07 -6.1850561744E+06  9.6432803789E-21 -2.6635003524E+05  3.9813071511E+04 -9.3022851043E+03  5.3953932301E-09 -8.9359444162E-09  2.2301423541E-08  1.3506889634E-10  2.7977142626E+07
     4     1 -2.6427125285E+04  1.9134009631E+07 -3.8411757245E+04  1.6165324491E-20  3.9655162066E+03 -1.4665862279E+02 -3.6561364195E+03  6.3748149781E-09  5.8205971140E-09  1.1443871864E-06  1.7313576351E-10  1.2574670763E+07  9.7189851466E-10  1.9134000000E+07 -6.5429790410E-10  1.6165502209E-20  3.9641928280E+03 -1.4563813295E+02 -3.6564454346E+03  6.3990508148E-09 -2.6815539516E-09  1.1444345630E-06  1.7317105989E-10  1.2574761464E+07
     4     2 -3.8006221957E+04  2.1483761284E+07 -5.5063593740E+04  1.5869767177E-20  3.9620882984E+03 -9.6541247392E+01 -5.4391905773E+03  6.3663874214E-09  4.7555452362E-09  8.0626029042E-07  1.7351018440E-10  1.2983608908E+07  1.0912544726E-09  2.1483789474E+07 -7.3465027829E-10  1.5869991649E-20  3.9585633226E+03 -9.1482675887E+01 -5.4395592171E+03  6.4024285087E-09 -2.9183625186E-09  8.0631383803E-07  1.7355846735E-10  1.2984609791E+07
     4     3 -5.5043446536E+04  2.3833458702E+07 -7.9403466575E+04  1.5574207826E-20  3.9603004858E+03 -4.8113538818E+01 -7.2898468301E+03  6.3522061231E-09  4.1591576008E-09  5.8851573976E-07  1.7388032580E-10  1.3391718907E+07  1.2106104305E-09  2.3833578947E+07 -8.1500265248E-10  1.5574481090E-20  3.9527201885E+03 -3.5272125071E+01 -7.2903386828E+03  6.4058062026E-09 -3.1551710855E-09  5.8858127699E-07  1.7394587481E-10  1.3394458118E+07
     4     4 -8.0857026711E+04  2.6183045546E+07 -1.1593640725E+05  1.5278647559E-20  3.9614918988E+03 -4.0697727675E+00 -9.2118903266E+03  6.3285007290E-09  3.9533908865E-09  4.4200199041E-07  1.7424334821E-10  1.3798429668E+07  1.3299663885E-09  2.6183368421E+07 -8.9535502667E-10  1.5278970530E-20  3.9466510302E+03  2.3112762203E+01 -9.2127099976E+03  6.4091838965E-09 -3.3919796524E-09  4.4208875160E-07  1.7433328228E-10  1.3804306445E+07
     4     5 -1.2333205086E+05  2.8532428984E+07 -1.7523428132E+05  1.4983085176E-20  3.9686504161E+03  2.9415629047E+01 -1.1209112869E+04  6.2867793080E-09  4.2678091126E-09  3.3979901233E-07  1.7459300920E-10  1.4202491660E+07  1.4493223464E-09  2.8533157895E+07 -9.7570740085E-10  1.4983459970E-20  3.9403424746E+03  8.3800635670E+01 -1.1210909062E+04  6.4125615904E-09 -3.6287882194E-09  3.3992784560E-07  1.7472068974E-10  1.4214154772E+07
     4     6 -2.0879158633E+05  3.0881483305E+07 -2.9217097895E+05  1.4687484546E-20  3.9908534301E+03  3.3054942295E+01 -1.3284114316E+04  6.1990693439E-09  5.7793664067E-09  2.6628020570E-07  1.7490733801E-10  1.4600229423E+07  1.5686783044E-09  3.0882947368E+07 -1.0560597750E-09  1.4687949410E-20  3.9337800722E+03  1.4693049841E+02 -1.3289512668E+04  6.4159392844E-09 -3.8655967863E-09  2.6652094151E-07  1.7510809720E-10  1.4624003099E+07